100
Lattice="10.0 0.0 0.0 0.0 10.0 0.0 0.0 0.0 10.0" Properties=species:S:1:pos:R:3:forces:R:3 energy=-5.399817 pbc="T T T"
Cl 5.075360 1.206510 8.511760 0.004172 0.002801 -0.007153
Cl 3.735770 4.146050 5.433990 0.103844 -0.022190 0.090607
Cl 3.898300 1.904820 0.176151 -0.027612 0.129967 -0.049442
Cl 4.477820 2.975480 2.380180 -0.066785 -0.023745 -0.039309
Cl 4.616760 2.366220 6.954550 0.453723 -0.777341 0.459577
Cl 6.722910 2.608550 6.359870 -0.043270 -0.103455 -0.048064
Cl 4.397760 0.746117 2.084050 0.198030 0.233804 -0.028439
Cl 6.301840 0.966780 3.313700 0.524185 0.163173 0.332048
Cl 3.312030 9.906370 5.048910 0.084982 0.061803 -0.063554
Cl 2.649140 3.220600 2.737320 -0.111102 0.090944 0.063999
Cl 5.957860 8.996830 3.718180 -0.103664 0.091886 -0.101872
Cl 9.098720 8.971470 1.782750 0.005092 0.003113 -0.000022
Cl 4.434740 6.853490 2.139850 -0.117010 0.067395 0.140331
Cl 0.796702 8.370320 2.700540 0.000417 0.008899 -0.004879
Cl 7.470930 1.705180 9.757570 0.000000 0.000000 0.000000
Cl 3.978700 1.122850 3.400200 0.085831 0.070775 0.095020
Cl 5.859560 3.144070 6.780660 -0.108622 -0.025333 -0.066813
Cl 4.565810 9.079080 7.876260 -0.003604 -0.003502 -0.004037
Cl 1.477860 8.674450 7.626800 0.000000 0.000000 0.000000
Cl 5.301640 7.623330 7.614240 0.099214 0.411164 -0.295658
Cl 6.339560 8.247890 4.799990 -0.051591 -0.045561 -0.056091
Cl 4.749250 9.130610 3.811190 0.701176 -0.190113 -0.001362
Cl 3.730930 3.362460 7.770040 0.026410 -0.007011 -0.062334
Cl 2.528210 3.414700 8.689990 0.046341 -0.052922 0.045246
Cl 7.229630 4.832220 0.837965 0.000000 0.000000 0.000000
Cl 9.475410 5.338060 6.254470 -0.013892 -0.003700 0.046652
Cl 3.538010 8.292240 1.966640 0.005839 0.104807 0.041335
Cl 4.928790 3.846260 4.748260 -0.385283 0.623220 -0.380737
Cl 3.191590 8.455490 4.594850 0.146280 -0.046387 -0.090718
Cl 3.401410 6.547650 7.288250 0.043360 0.027271 -0.086367
Cl 8.877660 1.754450 1.105120 0.000000 0.000000 0.000000
Cl 5.068950 6.082120 7.391270 -0.084669 -0.173243 -0.168722
Cl 0.312201 9.559000 3.459240 0.004154 0.003678 -0.012412
Cl 3.341960 4.794620 6.537500 0.112823 0.007534 0.028162
Cl 3.799870 1.338620 6.385560 -0.034494 -0.081228 -0.071774
Cl 5.925620 0.732743 5.654170 -0.110232 0.043624 -0.120572
Cl 7.500520 7.167660 1.209320 -0.100649 -0.023690 -0.007949
Cl 2.525750 2.967450 1.022320 0.025398 -0.017724 0.005453
Cl 6.235530 0.622917 0.520302 -0.105880 -0.056061 0.094730
Cl 2.221420 1.643630 4.495010 0.019276 0.098204 0.026793
Cl 2.274880 1.227470 6.343140 0.085269 -0.003974 -0.023871
Cl 9.899350 4.323060 6.115070 0.061412 -0.063370 -0.117287
Cl 4.894520 7.710510 8.752420 -0.096431 0.234255 0.116198
Cl 4.318470 6.886090 5.198640 -0.075114 0.055940 0.003721
Cl 9.010220 3.161900 6.419050 0.009416 0.027126 0.013242
Cl 7.229890 1.425370 7.578180 -0.050178 0.014485 -0.035356
Cl 2.279440 0.270464 4.387640 -0.542455 -0.536232 0.248152
Cl 1.291400 0.259115 6.228600 0.003018 0.000696 0.001778
Cl 5.021930 2.811300 4.874750 -0.506584 -1.220362 -0.555611
Cl 5.641550 7.814660 0.869329 0.053501 -0.030756 0.014068
Na 4.851090 4.206780 6.176980 -0.081563 -0.067361 -0.058982
Na 5.838280 0.052883 3.054020 -0.245378 -0.086185 -0.060591
Na 7.336440 0.717217 5.700240 -0.088346 0.015849 0.005085
Na 0.612096 3.032490 4.523170 -0.208972 0.094259 -0.025186
Na 5.500900 0.437722 4.484700 -0.193339 0.080064 -0.027811
Na 3.188130 0.696568 7.345910 0.016018 0.069231 -0.123828
Na 4.757860 1.699890 4.006080 0.418748 -0.332485 -0.147197
Na 4.004980 7.176370 3.288620 0.198774 0.153336 0.293379
Na 6.300670 6.885240 1.114550 0.054438 0.083724 -0.003921
Na 5.286280 1.620920 2.014650 0.078515 -0.144016 -0.185775
Na 5.186870 9.203950 2.853850 0.087664 0.058203 -0.240078
Na 4.334360 5.138220 7.065000 -0.159127 -0.030574 0.110074
Na 9.492590 4.551580 7.097440 -0.055346 0.037116 0.053838
Na 1.578100 2.597970 4.651070 0.277187 -0.167451 0.006908
Na 2.725320 1.968190 3.517310 0.142993 -0.039547 0.035446
Na 3.326150 2.414790 2.522210 0.312958 -0.252008 -0.029667
Na 2.977570 0.940830 4.093780 0.793945 0.630020 -0.215250
Na 5.062050 5.352750 6.315650 0.124345 0.017620 -0.106065
Na 5.152020 9.583280 5.771330 -0.042948 0.178354 -0.079390
Na 5.063470 1.405950 5.204380 -0.156115 -0.219582 -0.122146
Na 6.349440 9.289710 0.809654 -0.051040 0.085145 0.025706
Na 4.674470 6.550300 3.845930 0.141775 -0.001254 0.151646
Na 5.117030 0.988999 0.783577 0.000874 -0.009344 0.159464
Na 4.422420 1.901540 2.562340 -0.264259 -0.236371 0.284699
Na 5.906400 2.091480 5.275320 0.006562 0.141105 0.069682
Na 3.875400 2.136390 4.351380 -0.407615 0.038817 0.124836
Na 5.545820 3.430340 5.460040 0.849169 0.365408 1.158459
Na 5.583990 0.084327 1.834390 -0.417333 -0.508171 -0.208143
Na 3.387750 7.351740 2.481540 -0.233226 -0.165128 -0.473558
Na 4.990870 6.826120 8.188030 0.962059 -1.040522 0.462244
Na 3.279740 2.556450 9.423770 -0.006000 0.013022 0.013646
Na 5.318920 1.184010 3.054590 -0.667478 -0.011276 -0.096906
Na 4.237870 0.361283 4.609610 0.122050 0.030874 -0.162009
Na 6.062690 0.873754 2.259230 0.278793 0.523227 0.236554
Na 3.612460 7.042440 6.207150 0.095226 -0.392546 0.421310
Na 3.533560 7.699940 5.413270 -0.001839 0.353638 -0.508960
Na 6.069310 2.454600 2.096990 -0.084469 -0.097545 0.024036
Na 4.208550 3.140660 6.465180 -0.339704 0.886254 -0.504151
Na 4.073960 7.135030 7.970420 -0.963546 0.427694 -0.259491
Na 3.824330 9.327580 4.152860 -0.844789 0.219565 0.398746
Na 3.879240 1.904280 1.578030 0.065458 0.009502 0.097187
Na 4.763050 0.245068 3.523730 0.099080 0.051582 0.048957
Na 0.875753 0.058101 1.775230 -0.009151 -0.015553 0.017772
Na 6.015320 1.837640 6.900120 0.027389 0.128979 -0.073020
Na 3.956360 1.057880 0.852181 0.123654 -0.126169 0.171165
Na 4.179220 8.048540 4.038550 -0.104250 0.099736 -0.045855
Na 5.648340 7.517640 3.934770 -0.069553 0.066641 0.046770
Na 3.201150 8.122650 3.220540 0.174968 0.063582 0.160981
Na 3.069670 1.517710 5.277270 0.025081 -0.089927 -0.080133
Na 4.342780 0.518377 5.735080 0.053616 0.041797 -0.107184
100
Lattice="10.0 0.0 0.0 0.0 10.0 0.0 0.0 0.0 10.0" Properties=species:S:1:pos:R:3:forces:R:3 energy=-6.124696 pbc="T T T"
Cl 5.005530 2.105350 6.651330 0.018445 0.112598 1.420669
Cl 3.147690 3.545210 4.190760 0.014521 -0.017126 0.003085
Cl 7.030620 4.249260 9.787680 0.016869 0.016755 -0.000697
Cl 6.701740 3.133910 2.700400 -0.081938 -0.081726 0.071191
Cl 4.023750 0.225907 9.831950 -0.053427 0.022757 -0.018767
Cl 7.987720 2.173930 9.613130 0.010561 -0.044143 -0.025946
Cl 5.336880 1.853390 2.598990 -0.093085 -0.106503 0.170074
Cl 6.930750 1.544950 3.422350 -0.057460 -0.085621 -0.035436
Cl 3.463590 0.184448 5.047100 -0.131422 -0.000776 0.492269
Cl 4.272070 2.742610 1.625010 -0.012438 -0.086917 0.091548
Cl 4.668450 9.210100 4.199540 -0.769427 0.603576 -0.065933
Cl 1.147350 0.535645 9.391020 0.029379 0.002703 -0.002204
Cl 4.165440 7.861850 2.944820 -0.066705 -0.127579 -0.047966
Cl 8.637160 5.294170 3.520500 0.000070 -0.004229 0.002067
Cl 8.211250 9.917440 7.263390 0.000460 0.005938 0.009574
Cl 2.737990 1.668620 3.018090 -0.005551 -0.073245 -0.024120
Cl 2.794060 0.213643 8.162020 -0.001694 0.038111 0.089467
Cl 4.905800 7.017780 0.124515 0.024113 0.056928 0.072500
Cl 8.676250 7.811580 8.701610 0.000000 0.000000 0.000000
Cl 5.269500 2.773330 7.581980 0.222872 0.050747 -0.138094
Cl 6.343350 8.690440 5.345310 0.161000 -0.175357 0.026829
Cl 3.218800 0.851589 2.202630 -0.210728 -0.237589 0.355761
Cl 1.628460 6.378000 8.126360 0.000000 0.000000 0.000000
Cl 0.230678 3.786960 1.143460 0.000000 0.000000 0.000000
Cl 8.271280 5.335920 1.569320 -0.000301 0.000819 -0.014060
Cl 8.049090 3.479010 3.345520 0.036818 -0.012554 0.088514
Cl 5.115990 8.403740 4.592900 0.497022 -0.845934 0.926817
Cl 2.368570 2.275780 8.245560 0.009134 -0.007622 0.004496
Cl 4.469770 7.290890 4.487730 -0.026153 0.113449 -0.003026
Cl 3.714690 7.654240 6.095200 -0.029341 0.081501 -0.019286
Cl 1.221880 3.736690 3.823160 0.000000 0.000000 0.000000
Cl 6.608300 5.851730 8.517670 0.004697 -0.000887 0.005195
Cl 0.524738 8.982510 1.320430 -0.002842 -0.002385 0.011392
Cl 9.572880 7.589040 7.542220 0.000000 0.000000 0.000000
Cl 4.786060 1.306930 4.903150 -0.231334 -0.333313 0.285509
Cl 9.050720 0.265208 4.469080 0.000000 0.000000 0.000000
Cl 5.522490 5.665670 2.698740 -0.031478 -0.065388 -0.034034
Cl 7.797840 6.163040 9.036430 -0.034468 0.057185 -0.055691
Cl 6.715020 5.616440 7.426000 0.000152 -0.000334 -0.001551
Cl 2.556230 3.872100 1.517730 0.000000 0.000000 0.000000
Cl 5.872730 1.143110 5.494080 0.095957 -0.437665 -0.196135
Cl 8.321370 4.374620 4.562510 -0.051730 0.151228 0.014170
Cl 4.563340 4.129850 6.507210 0.131770 -0.112349 -0.073464
Cl 4.164910 9.422800 5.352010 0.059375 -0.200529 -0.112854
Cl 9.717050 3.075490 4.708120 0.029028 -0.007805 0.006676
Cl 4.885850 2.004160 0.092911 -0.006761 -0.003016 0.004267
Cl 2.512490 8.754970 4.402560 0.108915 0.005976 -0.008230
Cl 0.438784 1.828260 4.637840 0.000000 0.000000 0.000000
Cl 4.834390 2.538490 3.872540 -0.216321 0.059312 -0.126795
Cl 4.293530 7.677480 1.733310 0.081301 0.100260 0.069209
Na 4.384530 2.418960 4.963290 0.382330 0.023783 0.245664
Na 5.174480 9.636050 3.400800 0.151460 0.279513 -0.352909
Na 2.701940 7.755280 6.578030 -0.007147 -0.029895 0.007842
Na 4.984490 4.548110 2.117060 0.030064 0.053593 0.035643
Na 5.148900 0.147822 4.488590 -0.060712 0.156838 -0.228446
Na 5.355470 2.015940 5.727590 0.123838 -0.332582 -1.430760
Na 4.894950 1.360110 3.691280 -0.021106 -0.205787 -0.281406
Na 5.577490 8.547170 3.706230 0.115495 0.295161 -0.811160
Na 5.093790 8.327550 2.425490 -0.121057 -0.072964 0.064535
Na 8.232070 5.442620 9.738030 0.013052 -0.073538 0.066804
Na 4.601330 9.292490 2.214270 0.069211 0.152672 0.017818
Na 4.086780 2.082450 6.176710 -0.242382 0.124146 -0.341330
Na 8.669410 3.357160 4.467180 -0.027304 -0.130065 -0.110127
Na 4.269020 2.342530 2.750360 0.114641 -0.183003 0.051599
Na 1.627370 1.541970 2.462210 0.120910 -0.005296 0.048162
Na 3.917230 1.334600 1.584880 0.301035 0.222316 -0.076126
Na 2.870340 0.571542 4.229030 -0.338715 -0.082479 -0.206947
Na 5.148340 2.983740 5.993910 -0.266427 0.312611 0.346955
Na 3.416400 9.389140 4.288520 -0.024132 0.210097 0.614838
Na 3.778470 1.203630 5.605220 0.131892 -0.158609 -0.287437
Na 5.236980 7.799680 1.120300 -0.056231 -0.023688 0.016393
Na 5.702180 9.560080 5.299090 0.175408 -0.159634 -0.249442
Na 4.382330 2.419970 8.036240 -0.230654 -0.120287 0.080210
Na 4.153870 1.054300 2.871840 -0.012554 0.068285 0.036083
Na 5.396170 3.846910 5.456610 0.058515 0.232600 -0.177300
Na 6.041650 3.415630 3.821650 0.159179 0.211179 -0.341351
Na 8.288590 0.916360 8.873970 -0.011824 0.038250 0.016151
Na 3.924490 9.697370 3.439160 -0.167414 0.886571 -0.174946
Na 4.418140 8.857070 3.189000 0.628311 -0.546449 -0.155554
Na 5.789390 3.474930 6.907070 -0.116191 -0.011826 -0.179853
Na 5.623830 1.065970 8.143450 -0.016074 0.030673 -0.016811
Na 5.488320 1.897330 4.393920 0.540677 0.180525 0.227428
Na 3.919060 0.592288 4.201180 0.777319 0.092639 -0.387765
Na 6.310760 0.565189 3.578430 -0.151175 0.071104 -0.017080
Na 3.145350 8.667230 6.134030 0.145329 -0.078265 -0.041515
Na 2.739180 9.552150 5.647630 0.064498 0.079739 -0.184441
Na 6.251540 2.414000 3.467690 -0.190492 -0.156857 -0.059331
Na 5.545130 3.010800 4.646220 -0.339220 -0.297022 0.427055
Na 5.298380 8.586270 5.637220 -0.141772 -0.019314 0.182605
Na 3.536330 8.522120 3.706710 -0.084460 -0.181383 -0.277753
Na 5.205500 0.658073 2.680080 -0.049159 0.049081 0.201040
Na 2.772080 0.037005 3.049230 0.254789 0.038033 0.074754
Na 0.078773 8.608310 3.107760 0.003216 0.002583 -0.011400
Na 2.773090 0.685213 9.269040 0.024836 -0.051180 -0.068278
Na 6.376420 1.940510 2.137260 -0.019506 0.061089 0.186461
Na 4.079720 8.392040 4.633290 -0.468029 0.067803 0.174621
Na 6.090820 7.754520 6.192990 -0.050750 0.148670 -0.121417
Na 3.533980 9.113180 2.411090 0.051426 0.013154 0.297358
Na 4.039430 1.722500 4.237760 -0.217015 -0.086498 -0.220474
Na 4.936100 0.213339 5.541050 -0.443784 0.494663 0.174345
100
Lattice="10.0 0.0 0.0 0.0 10.0 0.0 0.0 0.0 10.0" Properties=species:S:1:pos:R:3:forces:R:3 energy=-5.100148 pbc="T T T"
Cl 7.685520 1.453360 7.769890 0.000000 0.000000 0.000000
Cl 4.131540 1.761970 2.351860 0.071340 -0.130474 -0.051068
Cl 0.100881 4.474810 9.315540 0.001262 0.001957 0.003834
Cl 5.148060 2.588470 3.034760 0.153937 -0.075427 0.062685
Cl 1.743360 7.161330 0.406987 -0.019836 -0.005730 0.013109
Cl 9.913860 8.056810 2.218160 0.017934 -0.048730 -0.040209
Cl 6.289470 2.178010 0.816912 -0.014274 -0.013390 0.017960
Cl 7.116370 1.377540 2.154670 -0.106865 -0.008497 0.128832
Cl 1.336020 1.355860 5.332720 0.026372 -0.030386 -0.024529
Cl 1.284610 3.245070 1.815630 0.000000 0.000000 0.000000
Cl 6.533690 9.434970 3.688180 -0.124723 0.099652 0.013020
Cl 2.661580 8.544660 0.428028 -0.057830 0.057400 0.055458
Cl 4.004720 7.536000 3.674760 -0.010986 0.067085 0.099159
Cl 6.732260 4.652010 1.371480 0.000000 0.000000 0.000000
Cl 7.443320 0.696942 4.455860 -0.094179 0.124860 -0.056644
Cl 2.704150 1.910100 3.239980 0.079610 -0.055235 0.119268
Cl 1.902820 6.094050 1.240710 -0.081919 -0.032617 -0.003289
Cl 1.551840 3.550500 6.252940 0.000000 0.000000 0.000000
Cl 9.538030 1.650460 6.975980 0.000000 0.000000 0.000000
Cl 3.984740 1.494610 9.705980 0.000000 0.000000 0.000000
Cl 4.130170 0.070014 6.679240 0.002273 0.000042 -0.022371
Cl 2.936340 9.008710 1.913800 0.012995 0.060927 0.088822
Cl 0.089852 9.484400 8.665430 0.000000 0.000000 0.000000
Cl 0.817018 0.215463 0.951370 0.059976 -0.008866 0.098016
Cl 1.207460 5.294810 6.296810 0.000000 0.000000 0.000000
Cl 9.057910 9.809320 0.794309 0.000840 0.001631 0.003825
Cl 4.066440 7.892950 8.213780 0.001928 -0.038982 -0.036380
Cl 0.640837 2.677100 0.552414 0.000000 0.000000 0.000000
Cl 6.587530 8.210480 5.148880 0.209542 -0.325768 0.167725
Cl 6.286870 2.781460 7.442540 -0.058215 0.068463 -0.009799
Cl 3.660130 5.804330 7.108500 -0.016261 0.059529 0.068880
Cl 4.580130 5.082380 3.792100 0.000261 -0.007872 0.001238
Cl 0.681099 9.850130 9.929880 -0.001718 -0.036397 -0.078820
Cl 5.858760 1.479720 8.100960 0.000000 0.000000 0.000000
Cl 4.400030 1.804920 3.424650 -0.021586 -0.193076 0.021112
Cl 2.607830 0.840107 2.819960 0.130399 -0.070341 0.192022
Cl 3.743350 4.454660 9.569020 0.006205 0.000233 -0.007998
Cl 5.969440 6.818190 8.871090 -0.002845 0.002071 -0.005855
Cl 6.010190 6.746630 7.622590 -0.080517 0.061627 -0.051786
Cl 2.504870 5.111770 9.112080 0.001200 0.002986 -0.002564
Cl 7.486860 2.252520 3.303170 -0.140523 0.035588 0.030954
Cl 6.411560 3.907710 2.562590 0.006242 -0.099757 0.032176
Cl 6.672240 4.705590 4.836930 0.307893 0.246198 -0.065042
Cl 3.848800 9.421890 3.960340 0.281954 -0.132291 0.093289
Cl 7.732050 3.352840 1.698920 -0.010021 -0.005010 0.009882
Cl 2.152050 1.421820 0.570106 -0.000436 -0.003718 0.001025
Cl 1.874080 9.923120 2.311470 0.050019 -0.076126 -0.043855
Cl 8.051610 5.000750 4.972420 0.000000 0.000000 0.000000
Cl 4.158280 3.911390 5.028300 0.021503 -0.006771 -0.008322
Cl 5.162440 8.893500 3.238760 -0.122439 0.265817 -0.078353
Na 5.582320 3.762180 6.648480 0.022742 -0.033602 0.042991
Na 5.910280 0.544421 1.957520 -0.151059 0.081933 0.223103
Na 7.092670 9.029560 6.382740 -0.108369 -0.075916 -0.058089
Na 3.383570 3.607310 3.000020 -0.005755 -0.111023 0.018519
Na 4.637610 9.645210 4.856830 -0.023965 0.080904 -0.160825
Na 5.746710 0.413800 5.162330 -0.078312 -0.146179 -0.130698
Na 5.950610 0.733116 4.108340 -0.030307 -0.039001 -0.193597
Na 7.113570 1.230310 3.502160 0.024258 -0.244226 -0.232586
Na 3.979440 9.186130 2.695870 -0.292037 -0.243102 -0.220126
Na 0.303817 6.997210 1.343860 0.019669 0.014796 0.026133
Na 5.550250 9.982030 3.197940 0.426760 0.522039 -0.729606
Na 5.885510 4.037850 5.001110 -0.298189 -0.382930 0.044444
Na 6.512110 2.742880 2.901980 -0.074344 -0.116244 0.094529
Na 5.029600 1.351500 1.722670 0.131351 0.330680 -0.506129
Na 3.944100 2.927270 1.991270 0.007457 -0.086405 0.135273
Na 4.045040 0.246603 2.044490 -0.027754 -0.308332 -0.121410
Na 2.046330 0.101638 4.641900 0.196624 -0.003397 -0.083646
Na 6.512360 2.920920 4.784460 -0.065614 -0.034794 -0.110771
Na 3.029210 0.058411 3.797100 -0.013322 -0.220411 -0.345844
Na 3.651050 0.342589 4.864820 -0.020922 -0.092327 -0.340247
Na 2.860740 8.225730 4.406650 -0.004240 0.151685 -0.029273
Na 2.668940 0.944952 4.170750 -1.058917 0.381590 0.404421
Na 4.764940 4.930350 7.866300 0.004827 -0.039728 -0.003016
Na 5.001890 9.666540 2.298300 0.059010 -0.208140 -0.223595
Na 5.119040 7.437260 7.120610 0.066940 -0.035620 0.023527
Na 6.387650 1.812620 4.000450 -0.317166 0.325604 0.309863
Na 9.491130 0.650892 2.768150 -0.002169 -0.001225 -0.003057
Na 5.502360 9.546030 4.105720 -0.124086 -0.246830 0.867378
Na 4.393670 7.981410 4.845160 -0.021636 0.011498 -0.061058
Na 5.345760 3.671160 8.247930 0.004476 0.031960 -0.070109
Na 2.977630 9.393890 4.695520 0.017965 0.025479 -0.076409
Na 4.676970 1.089480 4.265930 0.072212 -0.148479 -0.066974
Na 4.499120 9.919780 3.198230 -0.206101 0.536388 0.515721
Na 5.979730 1.588720 3.047130 -0.083683 -0.050725 -0.223672
Na 3.146380 6.707350 7.741950 0.069786 -0.049421 -0.040632
Na 1.651010 8.386050 4.514740 0.135857 0.026895 -0.014209
Na 5.565280 2.768010 4.135270 0.109160 -0.106096 -0.103511
Na 7.399050 1.869620 4.362690 0.113859 -0.003616 0.081644
Na 5.993690 9.060530 5.045120 -0.323658 0.469534 -0.095933
Na 2.740280 9.004400 3.068670 0.152152 0.153653 0.021561
Na 5.123640 0.165530 1.292750 -0.165997 0.104318 0.158838
Na 3.627150 1.037260 3.885050 0.796122 0.206606 0.543829
Na 0.711790 5.422090 1.171390 0.062556 0.069632 0.008020
Na 1.903050 9.297550 1.155440 0.077084 0.015416 0.068762
Na 0.433363 5.377750 3.216080 0.000931 0.001140 -0.007596
Na 6.124710 8.324030 6.277280 0.050331 0.029254 -0.129899
Na 4.984620 7.338360 5.997250 0.021852 0.064685 -0.011410
Na 3.744320 0.810905 2.911320 0.206931 -0.129984 -0.654044
Na 4.873070 0.721337 2.501270 0.099044 -0.190898 0.839681
Na 2.705060 3.090760 3.925050 0.069133 -0.037644 -0.115678
100
Lattice="10.0 0.0 0.0 0.0 10.0 0.0 0.0 0.0 10.0" Properties=species:S:1:pos:R:3:forces:R:3 energy=-5.467403 pbc="T T T"
Cl 9.984560 2.127290 0.181516 0.005202 0.006821 -0.001855
Cl 4.619040 2.978500 1.911800 0.060569 -0.081473 0.069256
Cl 8.180910 2.878810 7.418800 0.000000 0.000000 0.000000
Cl 4.697270 2.340040 4.062170 -0.616074 -0.238314 0.371846
Cl 0.125409 7.477790 2.873340 -0.063079 0.075971 -0.032323
Cl 7.047760 4.675530 2.676790 -0.011464 -0.008087 0.000451
Cl 4.533680 9.400050 0.481325 -0.006015 0.064197 0.082134
Cl 5.787910 2.374110 2.554350 -0.077704 -0.072137 -0.122209
Cl 3.407060 3.383760 3.470870 0.042949 -0.012251 0.077537
Cl 7.700620 6.601510 0.839930 0.000000 0.000000 0.000000
Cl 6.028760 8.529490 3.537890 -0.054922 -0.135931 0.325217
Cl 1.158930 7.812430 3.376780 0.093393 0.037151 -0.015650
Cl 4.135320 9.378930 4.528810 0.435137 -1.522761 0.393525
Cl 8.787150 9.526920 7.956780 -0.155056 -0.013952 0.019514
Cl 9.758350 9.982500 4.335520 -0.011741 -0.023164 -0.018637
Cl 3.173270 1.559810 2.672410 -0.202972 0.035098 -0.000415
Cl 2.318990 5.903860 4.573450 0.051065 0.035576 -0.005622
Cl 1.056710 9.933140 1.722780 -0.019581 -0.240794 -0.316986
Cl 0.739261 6.534630 4.809600 0.005031 0.003306 0.003453
Cl 1.359830 8.854640 1.999590 0.013494 0.007963 0.030949
Cl 4.551010 0.882681 6.866660 0.019179 -0.001746 -0.009044
Cl 0.530628 0.708325 4.659230 0.082524 0.001006 -0.054934
Cl 8.674790 2.341350 9.161220 0.000000 0.000000 0.000000
Cl 1.725740 5.495920 1.488330 -0.019063 -0.097276 0.014116
Cl 3.046990 8.032070 1.398630 0.000382 -0.007240 -0.003129
Cl 0.563287 4.476590 8.874890 0.037757 -0.052622 0.057190
Cl 3.029150 7.400220 9.046510 0.015048 -0.038701 0.081027
Cl 1.508480 3.400290 1.133430 -0.011930 -0.250139 -0.210408
Cl 6.736080 0.346829 6.065390 -0.039582 -0.025358 -0.034843
Cl 8.896060 8.882730 5.930470 0.004212 0.002065 0.007671
Cl 6.581630 9.506880 7.930240 -0.852109 0.260697 0.084130
Cl 5.402790 3.172780 7.729220 -0.009664 0.007641 0.003508
Cl 1.801940 9.436980 7.673510 -0.008106 -0.000423 -0.000284
Cl 2.256230 0.247605 1.663550 0.121405 0.019153 0.143279
Cl 4.705320 0.876456 3.571820 0.072765 -0.177482 0.026768
Cl 3.896170 9.405380 2.108600 0.576465 -0.197325 -0.113927
Cl 2.927350 5.051730 6.086920 0.001470 0.002820 -0.005213
Cl 4.639810 4.116250 9.180770 0.308013 0.037903 -0.096723
Cl 2.659900 0.190587 0.465783 0.070318 0.003017 0.091008
Cl 3.178600 3.290800 7.782730 0.053686 0.067862 0.044857
Cl 7.799510 1.011900 2.254150 -0.149221 -0.022008 -0.034771
Cl 4.003300 1.909360 0.018064 0.060278 -0.037872 0.037334
Cl 4.830720 6.962810 6.638580 0.000000 0.000000 0.000000
Cl 3.040460 0.470642 3.587750 0.004483 -0.067713 -0.281426
Cl 4.439610 3.732080 0.208811 -0.069990 0.019338 -0.059978
Cl 2.014400 2.697690 9.585820 -0.059629 0.074734 0.012505
Cl 2.153130 9.829930 3.065150 0.137293 -0.038725 -0.081721
Cl 0.585605 8.759080 6.672780 -0.048083 0.035754 0.059986
Cl 5.871360 1.321180 7.494490 0.000000 0.000000 0.000000
Cl 4.040820 8.738280 3.254450 1.097589 -0.420986 -0.102292
Na 7.554670 9.242510 8.003470 0.858904 -0.198221 -0.028938
Na 5.051470 1.243840 0.617342 -0.062044 -0.016293 0.137017
Na 9.814870 9.333260 7.603780 0.102753 -0.049356 -0.086054
Na 3.892940 0.282774 4.258540 -0.263907 1.568419 -0.624508
Na 5.675770 9.908060 4.457810 0.047416 0.222980 -0.179942
Na 6.799870 0.261873 4.113290 -0.551548 -1.400808 1.062312
Na 5.617790 9.482010 3.208140 -0.091286 0.200347 0.126106
Na 6.398640 0.794778 2.440790 -0.012911 -0.038620 0.141894
Na 4.179750 9.871130 3.110530 0.000202 -0.084170 0.072702
Na 1.151300 3.657090 9.765530 0.039737 -0.034068 -0.002011
Na 6.230170 8.863440 2.565880 -0.551102 -0.672257 -0.898817
Na 5.718440 1.183010 4.439100 0.005515 -0.218772 -0.070356
Na 4.645740 1.748900 2.157100 -0.657279 0.357674 0.283231
Na 5.480770 1.238690 1.892390 0.637093 -0.602709 -0.132157
Na 5.548420 3.617860 2.735840 -0.024898 -0.210853 0.013070
Na 5.105290 9.368200 2.174690 -0.202735 -0.949366 -0.374744
Na 1.134160 0.556000 2.557380 0.130392 0.141780 0.388469
Na 5.550120 2.652450 3.587560 0.492972 0.238829 -0.283032
Na 2.102290 0.940828 2.933150 0.208095 -0.099077 0.033441
Na 4.218900 1.298380 4.610110 0.057728 0.012710 -0.112526
Na 3.503540 7.931530 3.739900 -0.114518 0.014520 -0.028589
Na 4.011530 3.292730 4.482220 0.017617 -0.099717 -0.114592
Na 3.998750 4.282970 8.238920 -0.026674 -0.087415 0.069830
Na 4.953660 8.367160 2.628020 0.117845 0.101836 0.138489
Na 6.878190 1.167030 4.769940 -0.133744 -0.060225 -0.105225
Na 6.751420 9.598520 3.007130 0.288673 0.907637 0.529606
Na 3.119080 1.743860 4.641300 0.126466 -0.065133 -0.051715
Na 6.056890 7.621620 2.876650 -0.059870 0.166502 -0.036985
Na 2.216380 7.505140 5.823280 0.022793 -0.010037 -0.059979
Na 3.594990 4.042480 9.289720 -0.261770 -0.048597 0.040269
Na 1.362470 0.312556 3.676260 -0.009865 0.098876 -0.062936
Na 5.923050 0.597708 3.449960 -0.140252 -0.168830 0.029926
Na 4.453290 0.344217 1.578080 0.567944 -0.011858 0.327851
Na 5.161980 0.257900 2.616240 -0.157469 1.350740 0.502668
Na 3.248450 6.836210 0.227378 -0.017747 0.055552 -0.064113
Na 3.427250 6.010490 4.314770 -0.057866 0.044802 0.020408
Na 6.976620 0.984640 3.491650 0.237069 1.301444 -1.205943
Na 7.259380 1.008100 1.129910 -0.002597 -0.014228 0.139644
Na 5.358260 0.509988 5.453140 -0.007856 0.023616 -0.153094
Na 2.327320 8.259360 3.185310 0.054465 0.062539 0.037555
Na 5.867230 0.064266 1.797920 0.009167 0.065845 0.006587
Na 3.139180 0.014812 2.445280 -0.493831 0.557719 0.497404
Na 1.494870 4.317850 1.659280 0.014213 0.356479 0.129002
Na 3.197930 9.267950 3.229730 -0.937602 0.622388 0.046573
Na 2.936710 7.433640 4.550140 -0.054805 -0.067534 0.049300
Na 6.869960 9.226860 6.927450 0.092219 0.016487 -0.101256
Na 4.067280 0.582352 5.906050 0.073568 0.008210 -0.132297
Na 3.978460 0.856425 2.709110 0.178277 -0.192858 -0.146711
Na 3.426740 0.228955 1.440930 -0.444721 -0.035284 -0.235726
Na 9.371380 8.385930 2.486960 0.074047 -0.075237 0.034023
100
Lattice="10.0 0.0 0.0 0.0 10.0 0.0 0.0 0.0 10.0" Properties=species:S:1:pos:R:3:forces:R:3 energy=-5.653575 pbc="T T T"
Cl 8.057310 0.442658 9.606490 0.000000 0.000000 0.000000
Cl 3.208680 0.482220 0.490190 0.006335 0.031915 -0.004111
Cl 4.790050 0.648152 4.205430 0.212927 0.184856 0.269217
Cl 1.775260 2.570370 4.767900 0.010444 -0.024915 -0.043616
Cl 5.259740 8.988710 1.580550 -0.005803 -0.635653 -0.429028
Cl 1.039900 5.354540 4.781150 0.000000 0.000000 0.000000
Cl 3.121720 0.309160 1.571420 0.084545 -0.040937 0.227647
Cl 6.829780 0.250356 1.849180 0.069577 0.435007 0.028948
Cl 4.281580 7.024450 4.211510 -0.044110 0.079254 0.026988
Cl 4.154760 8.406300 0.615282 -0.013778 0.078433 0.095881
Cl 6.966530 9.004680 3.179040 -0.113864 0.155621 -0.090788
Cl 1.407460 7.056060 4.859470 0.008999 0.023310 -0.010800
Cl 6.034440 0.341517 7.080170 0.000139 -0.000030 -0.004006
Cl 0.554409 3.817610 5.800700 -0.016942 -0.052129 -0.034456
Cl 1.724950 8.705620 3.554450 0.051199 -0.015988 0.073486
Cl 4.047630 9.862540 3.987920 0.046768 -0.086126 -0.179983
Cl 7.143450 8.685630 6.445940 -0.003129 -0.000534 -0.002106
Cl 3.492070 8.555270 8.481070 -0.007914 0.002473 -0.002650
Cl 3.614540 6.610910 8.495080 0.000000 0.000000 0.000000
Cl 9.503840 6.787710 1.459120 0.000000 0.000000 0.000000
Cl 4.248740 1.627990 5.012870 0.036565 0.124211 -0.062924
Cl 2.253760 0.771108 3.766110 0.087126 0.019913 -0.057623
Cl 7.556540 4.549720 9.479640 -0.018823 -0.019046 -0.009408
Cl 3.182890 3.450340 2.980760 0.075461 -0.033705 0.038778
Cl 3.253880 9.375320 2.323330 -0.636984 -0.273531 0.060228
Cl 1.148260 1.143040 9.930360 0.082006 0.028563 0.043156
Cl 2.333420 7.190390 2.930180 -0.019867 -0.038657 -0.004861
Cl 3.087710 2.208690 7.652210 -0.029414 0.011865 0.015168
Cl 2.257660 2.976140 3.644130 0.273148 0.320654 0.120839
Cl 9.527810 9.034350 4.760700 -0.493748 0.234629 0.203804
Cl 9.650460 9.317270 8.134510 0.006046 -0.000596 -0.000747
Cl 5.640080 1.573190 0.499630 0.269412 -0.221967 0.363083
Cl 3.073110 9.908460 7.573740 -0.025999 -0.015852 0.002507
Cl 1.335350 8.611210 0.877754 -0.024984 -0.009690 -0.017680
Cl 6.722680 9.425920 4.834450 0.002189 -0.077970 -0.072094
Cl 2.941320 8.626810 3.347940 0.181540 0.198442 -0.106690
Cl 3.353910 2.944160 0.562504 -0.005106 -0.008092 -0.001029
Cl 5.184830 2.680940 7.204410 -0.091072 -0.047987 -0.054046
Cl 1.224530 2.946470 3.385710 -0.198997 -0.051778 -0.047077
Cl 3.716310 4.743090 6.819190 0.000000 0.000000 0.000000
Cl 1.046790 6.106550 8.755600 -0.273863 0.262966 -0.112961
Cl 4.941430 2.019070 9.860510 -0.262407 0.166234 -0.237784
Cl 6.426760 8.268770 7.638780 0.000000 0.000000 0.000000
Cl 1.376650 4.034680 4.536270 -0.007396 -0.008465 0.003104
Cl 3.584090 3.463760 4.640810 0.035722 -0.090206 -0.053955
Cl 0.072995 9.032440 1.135260 0.004615 -0.000187 0.000769
Cl 2.213080 9.645430 3.078430 0.155644 0.070733 -0.008705
Cl 1.278910 1.534910 5.541420 -0.018387 0.018898 -0.008411
Cl 6.650720 2.714200 8.233210 0.107424 -0.418991 -0.402083
Cl 4.804680 8.299460 3.521220 -0.109804 0.007237 0.210533
Na 0.179694 2.664650 5.038610 0.079298 0.040766 0.026692
Na 4.131710 0.010832 1.164560 0.063052 0.025281 0.134370
Na 1.770270 5.411860 9.054020 0.273866 -0.262920 0.113196
Na 5.433660 9.313730 4.040870 -0.155364 0.230116 0.572645
Na 4.333060 8.671670 4.730870 -0.087616 0.068364 -0.150530
Na 5.757710 1.525220 4.647360 0.095423 -0.199186 -0.081070
Na 5.477260 9.003180 3.065020 -0.593820 -0.705599 -0.998103
Na 6.512420 2.143960 2.474820 0.682300 0.268859 0.592853
Na 3.864930 9.891720 5.502500 -0.017108 -0.084739 -0.146055
Na 1.700250 9.115240 7.881160 0.029578 0.014118 -0.003021
Na 6.111030 0.325141 4.874440 -0.191547 0.141890 -0.064080
Na 6.711410 2.005050 4.121600 -0.121057 -0.152413 -0.010133
Na 4.216810 0.790518 3.296350 0.057251 0.044288 0.525339
Na 5.188020 9.739580 2.249430 0.256307 0.690396 0.820020
Na 6.614850 1.361370 1.808750 -0.150293 -0.508323 -0.276314
Na 6.357500 9.371730 2.143950 -0.475817 -0.257975 0.367572
Na 9.603910 2.465160 9.190270 0.009007 -0.005136 0.019100
Na 5.541230 2.234240 2.200620 -0.817999 -0.137698 -0.200556
Na 2.242580 1.931090 3.510370 -0.013386 -0.344853 0.027580
Na 4.949170 0.057423 3.323240 0.563755 -0.448303 -0.307089
Na 2.199840 8.946490 1.489500 0.118946 0.103592 0.102892
Na 4.849370 1.316160 2.505060 0.257135 -0.013808 0.122567
Na 3.998880 1.903100 7.100540 0.120148 0.066706 -0.111163
Na 5.316980 8.374020 5.216760 -0.030213 0.053362 -0.085209
Na 0.145755 2.247620 0.851871 0.007498 -0.010899 -0.027609
Na 6.116580 9.745650 3.244400 0.728166 0.647413 0.368188
Na 4.351940 2.367530 3.170690 0.028448 -0.051081 -0.006283
Na 5.351780 0.015903 1.202170 -0.093849 -0.147165 -0.134434
Na 3.532390 7.870780 4.485270 0.152156 0.113548 -0.003430
Na 4.358240 2.415220 6.047790 -0.014471 -0.089705 0.035594
Na 0.398658 8.620530 4.401240 0.537047 -0.241764 -0.221705
Na 5.974600 0.552917 2.592800 0.028616 0.100946 -0.076223
Na 4.140410 9.900330 2.347310 0.156706 1.203215 -0.702434
Na 3.993800 9.020700 1.646960 0.325868 -0.056939 -0.126815
Na 1.810170 6.049900 2.300840 0.026974 0.059018 0.032221
Na 3.084980 8.880250 5.003180 0.149931 -0.102482 -0.114512
Na 6.512140 0.763160 3.942450 -0.072431 0.002941 -0.154011
Na 2.323610 1.311320 0.354863 -0.009306 -0.092573 0.003886
Na 4.948300 1.975260 4.048620 -0.148075 -0.114386 -0.009221
Na 2.080110 0.446274 2.024070 0.127872 -0.104572 0.071407
Na 5.527320 0.930950 1.706330 0.028401 0.338552 -0.052838
Na 3.357890 0.164990 3.059340 -0.151065 -0.026613 0.213548
Na 4.519910 3.583850 3.522540 -0.103335 -0.139517 0.000916
Na 2.991270 9.531250 4.109150 -0.059643 -0.039858 -0.270156
Na 2.522100 8.187770 4.223070 -0.184837 0.054589 0.169609
Na 6.463650 3.443840 8.933410 -0.088369 0.437965 0.411510
Na 3.409560 2.308540 4.499490 0.061064 0.027976 -0.031141
Na 4.347270 9.201100 3.033760 0.089577 -0.616243 0.624187
Na 3.789860 1.147160 2.450090 -0.535794 0.013602 -0.668245
Na 7.282990 0.163207 3.071410 -0.324436 -0.074938 -0.048031
100
Lattice="10.0 0.0 0.0 0.0 10.0 0.0 0.0 0.0 10.0" Properties=species:S:1:pos:R:3:forces:R:3 energy=-5.841764 pbc="T T T"